<?xml version="1.0" encoding="UTF-8"?>

<!-- generated on 2025-04-21 22:40:29 by Eclipse SUMO GUI Version v1_22_0+0828-b8c034a1b39
<sumoConfiguration xmlns:xsi="http://www.w3.org/2001/XMLSchema-instance" xsi:noNamespaceSchemaLocation="http://sumo.dlr.de/xsd/sumoConfiguration.xsd">

    <input>
        <net-file value="simulation/simulation.net.xml"/>
        <route-files value="simulation/simulation_mixed.rou.xml"/>
        <additional-files value="simulation/vtypes.add.xml,simulation/ simulation_detectors.add.xml"/>
    </input>

    <output>
        <tripinfo-output value="simulation/tripinfos.xml"/>
    </output>

    <report>
        <log value="simulation/sumo_log.txt"/>
        <no-step-log value="true"/>
    </report>

    <traci_server>
        <remote-port value="59250"/>
    </traci_server>

</sumoConfiguration>
-->

<tripinfos xmlns:xsi="http://www.w3.org/2001/XMLSchema-instance" xsi:noNamespaceSchemaLocation="http://sumo.dlr.de/xsd/tripinfo_file.xsd">
</tripinfos>
