<?xml version="1.0" encoding="UTF-8"?>

<!-- generated on 2025-04-02 21:12:59 by Eclipse SUMO GUI Version v1_22_0+0828-b8c034a1b39
<sumoConfiguration xmlns:xsi="http://www.w3.org/2001/XMLSchema-instance" xsi:noNamespaceSchemaLocation="http://sumo.dlr.de/xsd/sumoConfiguration.xsd">

    <input>
        <net-file value="pasubio/pasubio_buslanes.net.xml"/>
        <route-files value="pasubio/pasubio.rou.xml"/>
        <additional-files value="pasubio/pasubio_vtypes.add.xml,pasubio/pasubio_bus_stops.add.xml,pasubio/pasubio_busses.rou.xml,pasubio/pasubio_detectors.add.xml,pasubio/pasubio_tls.add.xml"/>
    </input>

    <output>
        <tripinfo-output value="pasubio/tripinfos.xml"/>
    </output>

    <report>
        <log value="pasubio/sumo_log.txt"/>
        <no-step-log value="true"/>
    </report>

    <traci_server>
        <remote-port value="56753"/>
    </traci_server>

</sumoConfiguration>
-->

<tripinfos xmlns:xsi="http://www.w3.org/2001/XMLSchema-instance" xsi:noNamespaceSchemaLocation="http://sumo.dlr.de/xsd/tripinfo_file.xsd">
    <tripinfo id="Pertini_20_1" depart="4.00" departLane="63[0]_1" departPos="0.00" departSpeed="0.00" departDelay="2.00" arrival="74.00" arrivalLane="4[1][1][1]_1" arrivalPos="170.54" arrivalSpeed="14.04" duration="70.00" routeLength="895.82" waitingTime="0.00" waitingCount="0" stopTime="0.00" timeLoss="8.22" rerouteNo="0" devices="tripinfo_Pertini_20_1" vType="passenger1" speedFactor="1.05" vaporized=""/>
    <tripinfo id="Pertini_20_0" depart="0.00" departLane="63[0]_2" departPos="0.00" departSpeed="0.00" departDelay="0.00" arrival="76.00" arrivalLane="4[1][1][1]_0" arrivalPos="170.54" arrivalSpeed="14.10" duration="76.00" routeLength="882.71" waitingTime="4.00" waitingCount="1" stopTime="0.00" timeLoss="16.44" rerouteNo="0" devices="tripinfo_Pertini_20_0" vType="passenger1" speedFactor="1.08" vaporized=""/>
    <tripinfo id="Pertini_20_2" depart="4.00" departLane="63[0]_2" departPos="0.00" departSpeed="0.00" departDelay="0.00" arrival="78.00" arrivalLane="4[1][1][1]_1" arrivalPos="170.54" arrivalSpeed="13.00" duration="74.00" routeLength="882.71" waitingTime="0.00" waitingCount="0" stopTime="0.00" timeLoss="10.81" rerouteNo="0" devices="tripinfo_Pertini_20_2" vType="passenger2b" speedFactor="1.02" vaporized=""/>
    <tripinfo id="Pertini_20_7" depart="15.00" departLane="63[0]_2" departPos="0.00" departSpeed="0.00" departDelay="0.00" arrival="79.00" arrivalLane="4[1][1][1]_0" arrivalPos="170.54" arrivalSpeed="14.74" duration="64.00" routeLength="882.71" waitingTime="0.00" waitingCount="0" stopTime="0.00" timeLoss="5.49" rerouteNo="0" devices="tripinfo_Pertini_20_7" vType="passenger1" speedFactor="1.10" vaporized=""/>
    <tripinfo id="Prati_Capraia_10_0" depart="0.00" departLane="3[0]_0" departPos="0.00" departSpeed="0.00" departDelay="0.00" arrival="80.00" arrivalLane="10_0" arrivalPos="223.30" arrivalSpeed="12.87" duration="80.00" routeLength="409.63" waitingTime="39.00" waitingCount="1" stopTime="0.00" timeLoss="47.87" rerouteNo="0" devices="tripinfo_Prati_Capraia_10_0" vType="passenger2b" speedFactor="0.94" vaporized=""/>
    <tripinfo id="Prati_Capraia_10_1" depart="4.00" departLane="3[0]_0" departPos="0.00" departSpeed="0.00" departDelay="0.00" arrival="86.00" arrivalLane="10_0" arrivalPos="223.30" arrivalSpeed="10.25" duration="82.00" routeLength="409.63" waitingTime="34.00" waitingCount="1" stopTime="0.00" timeLoss="44.02" rerouteNo="0" devices="tripinfo_Prati_Capraia_10_1" vType="passenger5" speedFactor="0.80" vaporized=""/>
    <tripinfo id="Pertini_20_10" depart="21.00" departLane="63[0]_2" departPos="0.00" departSpeed="0.00" departDelay="0.00" arrival="86.00" arrivalLane="4[1][1][1]_1" arrivalPos="170.54" arrivalSpeed="14.76" duration="65.00" routeLength="882.71" waitingTime="0.00" waitingCount="0" stopTime="0.00" timeLoss="7.90" rerouteNo="0" devices="tripinfo_Pertini_20_10" vType="passenger1" speedFactor="1.12" vaporized=""/>
    <tripinfo id="Prati_Capraia_10_7" depart="34.00" departLane="3[0]_0" departPos="0.00" departSpeed="0.00" departDelay="0.00" arrival="88.00" arrivalLane="10_0" arrivalPos="223.30" arrivalSpeed="13.51" duration="54.00" routeLength="409.63" waitingTime="11.00" waitingCount="1" stopTime="0.00" timeLoss="23.47" rerouteNo="0" devices="tripinfo_Prati_Capraia_10_7" vType="passenger3" speedFactor="1.02" vaporized=""/>
    <tripinfo id="Pertini_20_11" depart="23.00" departLane="63[0]_1" departPos="0.00" departSpeed="0.00" departDelay="0.00" arrival="89.00" arrivalLane="4[1][1][1]_1" arrivalPos="170.54" arrivalSpeed="14.93" duration="66.00" routeLength="882.71" waitingTime="0.00" waitingCount="0" stopTime="0.00" timeLoss="6.62" rerouteNo="0" devices="tripinfo_Pertini_20_11" vType="passenger1" speedFactor="1.09" vaporized=""/>
    <tripinfo id="Certosa_9_0" depart="0.00" departLane="22[0]_1" departPos="0.00" departSpeed="0.00" departDelay="0.00" arrival="91.00" arrivalLane="2[1][1][1]b_2" arrivalPos="324.74" arrivalSpeed="13.76" duration="91.00" routeLength="602.57" waitingTime="38.00" waitingCount="1" stopTime="0.00" timeLoss="50.20" rerouteNo="0" devices="tripinfo_Certosa_9_0" vType="passenger1" speedFactor="1.08" vaporized=""/>
    <tripinfo id="Pertini_20_9" depart="19.00" departLane="63[0]_1" departPos="0.00" departSpeed="0.00" departDelay="0.00" arrival="95.00" arrivalLane="4[1][1][1]_0" arrivalPos="170.54" arrivalSpeed="12.06" duration="76.00" routeLength="895.82" waitingTime="0.00" waitingCount="0" stopTime="0.00" timeLoss="8.35" rerouteNo="0" devices="tripinfo_Pertini_20_9" vType="passenger1" speedFactor="0.96" vaporized=""/>
    <tripinfo id="Pertini_20_12" depart="25.00" departLane="63[0]_2" departPos="0.00" departSpeed="0.00" departDelay="0.00" arrival="96.00" arrivalLane="4[1][1][1]_1" arrivalPos="170.54" arrivalSpeed="12.78" duration="71.00" routeLength="895.82" waitingTime="0.00" waitingCount="0" stopTime="0.00" timeLoss="6.44" rerouteNo="0" devices="tripinfo_Pertini_20_12" vType="passenger1" speedFactor="1.01" vaporized=""/>
    <tripinfo id="Prati_Capraia_100_3" depart="14.00" departLane="3[0]_0" departPos="0.00" departSpeed="0.00" departDelay="0.00" arrival="97.00" arrivalLane="3[1]b_0" arrivalPos="238.77" arrivalSpeed="13.55" duration="83.00" routeLength="624.48" waitingTime="30.00" waitingCount="1" stopTime="0.00" timeLoss="40.61" rerouteNo="0" devices="tripinfo_Prati_Capraia_100_3" vType="passenger2a" speedFactor="1.06" vaporized=""/>
    <tripinfo id="Pertini_20_14" depart="30.00" departLane="63[0]_1" departPos="0.00" departSpeed="0.00" departDelay="0.00" arrival="98.00" arrivalLane="4[1][1][1]_1" arrivalPos="170.54" arrivalSpeed="13.96" duration="68.00" routeLength="895.82" waitingTime="0.00" waitingCount="0" stopTime="0.00" timeLoss="6.64" rerouteNo="0" devices="tripinfo_Pertini_20_14" vType="passenger1" speedFactor="1.06" vaporized=""/>
    <tripinfo id="Prati_Capraia_100_9" depart="43.00" departLane="3[0]_0" departPos="0.00" departSpeed="0.00" departDelay="0.00" arrival="100.00" arrivalLane="3[1]b_1" arrivalPos="238.77" arrivalSpeed="15.61" duration="57.00" routeLength="624.48" waitingTime="4.00" waitingCount="1" stopTime="0.00" timeLoss="19.15" rerouteNo="0" devices="tripinfo_Prati_Capraia_100_9" vType="passenger2a" speedFactor="1.21" vaporized=""/>
    <tripinfo id="Pertini_20_15" depart="32.00" departLane="63[0]_2" departPos="0.00" departSpeed="0.00" departDelay="0.00" arrival="101.00" arrivalLane="4[1][1][1]_1" arrivalPos="170.54" arrivalSpeed="13.89" duration="69.00" routeLength="895.82" waitingTime="0.00" waitingCount="0" stopTime="0.00" timeLoss="6.21" rerouteNo="0" devices="tripinfo_Pertini_20_15" vType="passenger1" speedFactor="1.03" vaporized=""/>
    <tripinfo id="Prati_Capraia_100_4" depart="19.00" departLane="3[0]_1" departPos="0.00" departSpeed="0.00" departDelay="0.00" arrival="104.00" arrivalLane="3[1]b_0" arrivalPos="238.77" arrivalSpeed="11.31" duration="85.00" routeLength="624.48" waitingTime="26.00" waitingCount="1" stopTime="0.00" timeLoss="35.36" rerouteNo="0" devices="tripinfo_Prati_Capraia_100_4" vType="passenger2a" speedFactor="0.91" vaporized=""/>
    <tripinfo id="Gandhi_80_11" depart="17.00" departLane="1[0]_0" departPos="0.00" departSpeed="0.00" departDelay="0.00" arrival="105.00" arrivalLane="21_0" arrivalPos="89.26" arrivalSpeed="13.02" duration="88.00" routeLength="512.45" waitingTime="39.00" waitingCount="1" stopTime="0.00" timeLoss="49.79" rerouteNo="0" devices="tripinfo_Gandhi_80_11" vType="passenger1" speedFactor="1.00" vaporized=""/>
    <tripinfo id="Pertini_20_17" depart="36.00" departLane="63[0]_2" departPos="0.00" departSpeed="0.00" departDelay="0.00" arrival="107.00" arrivalLane="4[1][1][1]_0" arrivalPos="170.54" arrivalSpeed="13.64" duration="71.00" routeLength="882.71" waitingTime="0.00" waitingCount="0" stopTime="0.00" timeLoss="6.62" rerouteNo="0" devices="tripinfo_Pertini_20_17" vType="passenger1" speedFactor="0.99" vaporized=""/>
    <tripinfo id="Prati_Capraia_100_8" depart="38.00" departLane="3[0]_1" departPos="0.00" departSpeed="0.00" departDelay="0.00" arrival="109.00" arrivalLane="3[1]b_1" arrivalPos="238.77" arrivalSpeed="15.25" duration="71.00" routeLength="624.48" waitingTime="11.00" waitingCount="2" stopTime="0.00" timeLoss="30.24" rerouteNo="0" devices="tripinfo_Prati_Capraia_100_8" vType="passenger2a" speedFactor="1.12" vaporized=""/>
    <tripinfo id="Prati_Capraia_100_11" depart="53.00" departLane="3[0]_0" departPos="0.00" departSpeed="0.00" departDelay="0.00" arrival="109.00" arrivalLane="3[1]b_0" arrivalPos="238.77" arrivalSpeed="11.93" duration="56.00" routeLength="624.48" waitingTime="0.00" waitingCount="0" stopTime="0.00" timeLoss="7.07" rerouteNo="0" devices="tripinfo_Prati_Capraia_100_11" vType="passenger1" speedFactor="0.92" vaporized=""/>
    <tripinfo id="Prati_Capraia_100_2" depart="9.00" departLane="3[0]_1" departPos="0.00" departSpeed="0.00" departDelay="0.00" arrival="111.00" arrivalLane="3[1]b_1" arrivalPos="238.77" arrivalSpeed="13.94" duration="102.00" routeLength="624.48" waitingTime="41.00" waitingCount="2" stopTime="0.00" timeLoss="57.22" rerouteNo="0" devices="tripinfo_Prati_Capraia_100_2" vType="passenger5" speedFactor="1.02" vaporized=""/>
    <tripinfo id="Pertini_20_22" depart="47.00" departLane="63[0]_2" departPos="0.00" departSpeed="0.00" departDelay="0.00" arrival="112.00" arrivalLane="4[1][1][1]_0" arrivalPos="170.54" arrivalSpeed="16.21" duration="65.00" routeLength="882.71" waitingTime="0.00" waitingCount="0" stopTime="0.00" timeLoss="10.12" rerouteNo="0" devices="tripinfo_Pertini_20_22" vType="passenger1" speedFactor="1.18" vaporized=""/>
    <tripinfo id="Prati_Capraia_100_13" depart="63.00" departLane="3[0]_0" departPos="0.00" departSpeed="0.00" departDelay="0.00" arrival="113.00" arrivalLane="3[1]b_0" arrivalPos="238.77" arrivalSpeed="13.83" duration="50.00" routeLength="624.48" waitingTime="0.00" waitingCount="0" stopTime="0.00" timeLoss="5.78" rerouteNo="0" devices="tripinfo_Prati_Capraia_100_13" vType="passenger2b" speedFactor="1.03" vaporized=""/>
    <tripinfo id="Saffi_30_4" depart="11.00" departLane="12_0" departPos="0.00" departSpeed="0.00" departDelay="0.00" arrival="115.00" arrivalLane="70_0" arrivalPos="59.87" arrivalSpeed="13.45" duration="104.00" routeLength="1144.73" waitingTime="10.00" waitingCount="1" stopTime="0.00" timeLoss="22.71" rerouteNo="0" devices="tripinfo_Saffi_30_4" vType="passenger1" speedFactor="1.03" vaporized=""/>
    <tripinfo id="Pertini_20_16" depart="34.00" departLane="63[0]_1" departPos="0.00" departSpeed="0.00" departDelay="0.00" arrival="117.00" arrivalLane="4[1][1][1]_0" arrivalPos="170.54" arrivalSpeed="11.62" duration="83.00" routeLength="895.82" waitingTime="0.00" waitingCount="0" stopTime="0.00" timeLoss="8.23" rerouteNo="0" devices="tripinfo_Pertini_20_16" vType="passenger2a" speedFactor="0.87" vaporized=""/>
    <tripinfo id="Sabotino_9_3" depart="27.00" departLane="41_0" departPos="0.00" departSpeed="0.00" departDelay="0.00" arrival="118.00" arrivalLane="2[1][1][1]b_0" arrivalPos="324.74" arrivalSpeed="14.28" duration="91.00" routeLength="1123.23" waitingTime="0.00" waitingCount="0" stopTime="0.00" timeLoss="14.01" rerouteNo="0" devices="tripinfo_Sabotino_9_3" vType="passenger1" speedFactor="1.06" vaporized=""/>
    <tripinfo id="Prati_Capraia_100_12" depart="58.00" departLane="3[0]_1" departPos="0.00" departSpeed="0.00" departDelay="0.00" arrival="118.00" arrivalLane="3[1]b_0" arrivalPos="238.77" arrivalSpeed="12.29" duration="60.00" routeLength="624.48" waitingTime="0.00" waitingCount="0" stopTime="0.00" timeLoss="12.94" rerouteNo="0" devices="tripinfo_Prati_Capraia_100_12" vType="passenger3" speedFactor="0.97" vaporized=""/>
    <tripinfo id="Prati_Capraia_100_14" depart="68.00" departLane="3[0]_1" departPos="0.00" departSpeed="0.00" departDelay="0.00" arrival="119.00" arrivalLane="3[1]b_0" arrivalPos="238.77" arrivalSpeed="13.80" duration="51.00" routeLength="624.48" waitingTime="0.00" waitingCount="0" stopTime="0.00" timeLoss="5.75" rerouteNo="0" devices="tripinfo_Prati_Capraia_100_14" vType="passenger4" speedFactor="1.00" vaporized=""/>
    <tripinfo id="Sabotino_9_0" depart="0.00" departLane="41_0" departPos="0.00" departSpeed="0.00" departDelay="0.00" arrival="120.00" arrivalLane="2[1][1][1]b_0" arrivalPos="324.74" arrivalSpeed="13.10" duration="120.00" routeLength="1123.23" waitingTime="27.00" waitingCount="1" stopTime="0.00" timeLoss="40.28" rerouteNo="0" devices="tripinfo_Sabotino_9_0" vType="passenger1" speedFactor="1.02" vaporized=""/>
    <tripinfo id="Pertini_20_21" depart="45.00" departLane="63[0]_1" departPos="0.00" departSpeed="0.00" departDelay="0.00" arrival="120.00" arrivalLane="4[1][1][1]_0" arrivalPos="170.54" arrivalSpeed="14.13" duration="75.00" routeLength="882.71" waitingTime="0.00" waitingCount="0" stopTime="0.00" timeLoss="13.57" rerouteNo="0" devices="tripinfo_Pertini_20_21" vType="passenger4" speedFactor="1.04" vaporized=""/>
    <tripinfo id="Sabotino_9_2" depart="18.00" departLane="41_0" departPos="0.00" departSpeed="0.00" departDelay="0.00" arrival="121.00" arrivalLane="2[1][1][1]b_1" arrivalPos="324.74" arrivalSpeed="13.11" duration="103.00" routeLength="1123.23" waitingTime="7.00" waitingCount="1" stopTime="0.00" timeLoss="21.57" rerouteNo="0" devices="tripinfo_Sabotino_9_2" vType="passenger5" speedFactor="1.00" vaporized=""/>
    <tripinfo id="Sabotino_9_1" depart="9.00" departLane="41_0" departPos="0.00" departSpeed="0.00" departDelay="0.00" arrival="124.00" arrivalLane="2[1][1][1]b_0" arrivalPos="324.74" arrivalSpeed="11.70" duration="115.00" routeLength="1123.23" waitingTime="16.00" waitingCount="1" stopTime="0.00" timeLoss="28.79" rerouteNo="0" devices="tripinfo_Sabotino_9_1" vType="passenger2a" speedFactor="0.94" vaporized=""/>
    <tripinfo id="Prati_Capraia_100_5" depart="24.00" departLane="3[0]_0" departPos="0.00" departSpeed="0.00" departDelay="0.00" arrival="124.00" arrivalLane="3[1]b_0" arrivalPos="238.77" arrivalSpeed="12.90" duration="100.00" routeLength="624.48" waitingTime="34.00" waitingCount="3" stopTime="0.00" timeLoss="53.25" rerouteNo="0" devices="tripinfo_Prati_Capraia_100_5" vType="passenger2b" speedFactor="0.98" vaporized=""/>
    <tripinfo id="Pertini_20_19" depart="40.00" departLane="63[0]_2" departPos="0.00" departSpeed="0.00" departDelay="0.00" arrival="125.00" arrivalLane="4[1][1][1]_0" arrivalPos="170.54" arrivalSpeed="10.95" duration="85.00" routeLength="895.82" waitingTime="0.00" waitingCount="0" stopTime="0.00" timeLoss="7.61" rerouteNo="0" devices="tripinfo_Pertini_20_19" vType="passenger3" speedFactor="0.84" vaporized=""/>
    <tripinfo id="Gandhi_80_45" depart="70.00" departLane="1[0]_0" departPos="0.00" departSpeed="0.00" departDelay="0.00" arrival="125.00" arrivalLane="21_0" arrivalPos="89.26" arrivalSpeed="11.66" duration="55.00" routeLength="512.45" waitingTime="0.00" waitingCount="0" stopTime="0.00" timeLoss="13.57" rerouteNo="0" devices="tripinfo_Gandhi_80_45" vType="passenger2a" speedFactor="0.92" vaporized=""/>
    <tripinfo id="Sabotino_9_4" depart="36.00" departLane="41_0" departPos="0.00" departSpeed="0.00" departDelay="0.00" arrival="127.00" arrivalLane="2[1][1][1]b_0" arrivalPos="324.74" arrivalSpeed="12.70" duration="91.00" routeLength="1123.23" waitingTime="0.00" waitingCount="0" stopTime="0.00" timeLoss="7.48" rerouteNo="0" devices="tripinfo_Sabotino_9_4" vType="passenger4" speedFactor="0.98" vaporized=""/>
    <tripinfo id="Pertini_20_25" depart="53.00" departLane="63[0]_1" departPos="0.00" departSpeed="0.00" departDelay="0.00" arrival="127.00" arrivalLane="4[1][1][1]_0" arrivalPos="170.54" arrivalSpeed="13.06" duration="74.00" routeLength="895.82" waitingTime="0.00" waitingCount="0" stopTime="0.00" timeLoss="9.77" rerouteNo="0" devices="tripinfo_Pertini_20_25" vType="passenger1" speedFactor="1.01" vaporized=""/>
    <tripinfo id="Prati_Capraia_10_19" depart="92.00" departLane="3[0]_0" departPos="0.00" departSpeed="0.00" departDelay="0.00" arrival="127.00" arrivalLane="10_0" arrivalPos="223.30" arrivalSpeed="14.40" duration="35.00" routeLength="409.63" waitingTime="0.00" waitingCount="0" stopTime="0.00" timeLoss="5.27" rerouteNo="0" devices="tripinfo_Prati_Capraia_10_19" vType="passenger3" speedFactor="1.05" vaporized=""/>
    <tripinfo id="Pertini_20_26" depart="55.00" departLane="63[0]_2" departPos="0.00" departSpeed="0.00" departDelay="0.00" arrival="128.00" arrivalLane="4[1][1][1]_0" arrivalPos="170.54" arrivalSpeed="13.32" duration="73.00" routeLength="882.71" waitingTime="0.00" waitingCount="0" stopTime="0.00" timeLoss="7.24" rerouteNo="0" devices="tripinfo_Pertini_20_26" vType="passenger5" speedFactor="0.97" vaporized=""/>
    <tripinfo id="Pertini_10_20" depart="43.00" departLane="63[0]_2" departPos="0.00" departSpeed="0.00" departDelay="0.00" arrival="129.00" arrivalLane="10_0" arrivalPos="223.30" arrivalSpeed="14.55" duration="86.00" routeLength="935.05" waitingTime="15.00" waitingCount="1" stopTime="0.00" timeLoss="25.62" rerouteNo="0" devices="tripinfo_Pertini_10_20" vType="passenger3" speedFactor="1.13" vaporized=""/>
    <tripinfo id="Prati_Capraia_100_10" depart="48.00" departLane="3[0]_1" departPos="0.00" departSpeed="0.00" departDelay="0.00" arrival="129.00" arrivalLane="3[1]b_0" arrivalPos="238.77" arrivalSpeed="11.59" duration="81.00" routeLength="624.48" waitingTime="7.00" waitingCount="2" stopTime="0.00" timeLoss="29.76" rerouteNo="0" devices="tripinfo_Prati_Capraia_100_10" vType="passenger1" speedFactor="0.88" vaporized=""/>
    <tripinfo id="Pertini_20_18" depart="38.00" departLane="63[0]_1" departPos="0.00" departSpeed="0.00" departDelay="0.00" arrival="130.00" arrivalLane="4[1][1][1]_1" arrivalPos="170.54" arrivalSpeed="12.01" duration="92.00" routeLength="895.82" waitingTime="8.00" waitingCount="1" stopTime="0.00" timeLoss="21.75" rerouteNo="0" devices="tripinfo_Pertini_20_18" vType="passenger3" speedFactor="0.93" vaporized=""/>
    <tripinfo id="Pertini_20_28" depart="60.00" departLane="63[0]_2" departPos="0.00" departSpeed="0.00" departDelay="0.00" arrival="130.00" arrivalLane="4[1][1][1]_0" arrivalPos="170.54" arrivalSpeed="13.86" duration="70.00" routeLength="895.82" waitingTime="0.00" waitingCount="0" stopTime="0.00" timeLoss="9.15" rerouteNo="0" devices="tripinfo_Pertini_20_28" vType="passenger1" speedFactor="1.07" vaporized=""/>
    <tripinfo id="Prati_Capraia_100_18" depart="87.00" departLane="3[0]_0" departPos="0.00" departSpeed="0.00" departDelay="0.00" arrival="130.00" arrivalLane="3[1]b_1" arrivalPos="238.77" arrivalSpeed="16.66" duration="43.00" routeLength="624.48" waitingTime="0.00" waitingCount="0" stopTime="0.00" timeLoss="5.54" rerouteNo="0" devices="tripinfo_Prati_Capraia_100_18" vType="passenger1" speedFactor="1.21" vaporized=""/>
    <tripinfo id="Pertini_20_27" depart="58.00" departLane="63[0]_1" departPos="0.00" departSpeed="0.00" departDelay="0.00" arrival="131.00" arrivalLane="4[1][1][1]_1" arrivalPos="170.54" arrivalSpeed="14.57" duration="73.00" routeLength="895.82" waitingTime="0.00" waitingCount="0" stopTime="0.00" timeLoss="18.16" rerouteNo="0" devices="tripinfo_Pertini_20_27" vType="passenger1" speedFactor="1.18" vaporized=""/>
    <tripinfo id="Prati_Capraia_100_16" depart="77.00" departLane="3[0]_0" departPos="0.00" departSpeed="0.00" departDelay="0.00" arrival="131.00" arrivalLane="3[1]b_0" arrivalPos="238.77" arrivalSpeed="12.49" duration="54.00" routeLength="624.48" waitingTime="0.00" waitingCount="0" stopTime="0.00" timeLoss="5.44" rerouteNo="0" devices="tripinfo_Prati_Capraia_100_16" vType="passenger1" speedFactor="0.93" vaporized=""/>
    <tripinfo id="Prati_Capraia_100_17" depart="82.00" departLane="3[0]_1" departPos="0.00" departSpeed="0.00" departDelay="0.00" arrival="136.00" arrivalLane="3[1]b_0" arrivalPos="238.77" arrivalSpeed="12.77" duration="54.00" routeLength="624.48" waitingTime="0.00" waitingCount="0" stopTime="0.00" timeLoss="5.30" rerouteNo="0" devices="tripinfo_Prati_Capraia_100_17" vType="passenger1" speedFactor="0.94" vaporized=""/>
    <tripinfo id="Sabotino_9_5" depart="45.00" departLane="41_0" departPos="0.00" departSpeed="0.00" departDelay="0.00" arrival="139.00" arrivalLane="2[1][1][1]b_0" arrivalPos="324.74" arrivalSpeed="13.00" duration="94.00" routeLength="1123.23" waitingTime="0.00" waitingCount="0" stopTime="0.00" timeLoss="7.59" rerouteNo="0" devices="tripinfo_Sabotino_9_5" vType="passenger1" speedFactor="0.94" vaporized=""/>
    <tripinfo id="Sabotino_9_6" depart="54.00" departLane="41_0" departPos="0.00" departSpeed="0.00" departDelay="0.00" arrival="139.00" arrivalLane="2[1][1][1]b_1" arrivalPos="324.74" arrivalSpeed="13.16" duration="85.00" routeLength="1123.23" waitingTime="0.00" waitingCount="0" stopTime="0.00" timeLoss="6.72" rerouteNo="0" devices="tripinfo_Sabotino_9_6" vType="passenger3" speedFactor="1.04" vaporized=""/>
    <tripinfo id="Montefiorino_60_7" depart="28.00" departLane="43_0" departPos="0.00" departSpeed="0.00" departDelay="0.00" arrival="142.00" arrivalLane="40[1]_0" arrivalPos="496.68" arrivalSpeed="12.42" duration="114.00" routeLength="1021.91" waitingTime="20.00" waitingCount="1" stopTime="0.00" timeLoss="31.78" rerouteNo="0" devices="tripinfo_Montefiorino_60_7" vType="passenger1" speedFactor="0.91" vaporized=""/>
    <tripinfo id="Borgo_20_3" depart="18.00" departLane="6_1" departPos="0.00" departSpeed="0.00" departDelay="0.00" arrival="147.00" arrivalLane="4[1][1][1]_1" arrivalPos="170.54" arrivalSpeed="13.73" duration="129.00" routeLength="551.60" waitingTime="76.00" waitingCount="1" stopTime="0.00" timeLoss="87.78" rerouteNo="0" devices="tripinfo_Borgo_20_3" vType="passenger1" speedFactor="1.00" vaporized=""/>
    <tripinfo id="Borgo_20_4" depart="24.00" departLane="6_1" departPos="0.00" departSpeed="0.00" departDelay="0.00" arrival="151.00" arrivalLane="4[1][1][1]_1" arrivalPos="170.54" arrivalSpeed="11.72" duration="127.00" routeLength="551.60" waitingTime="70.00" waitingCount="1" stopTime="0.00" timeLoss="81.34" rerouteNo="0" devices="tripinfo_Borgo_20_4" vType="passenger2b" speedFactor="0.90" vaporized=""/>
    <tripinfo id="Borgo_20_6" depart="36.00" departLane="6_1" departPos="0.00" departSpeed="0.00" departDelay="0.00" arrival="152.00" arrivalLane="4[1][1][1]_1" arrivalPos="170.54" arrivalSpeed="13.92" duration="116.00" routeLength="551.60" waitingTime="63.00" waitingCount="1" stopTime="0.00" timeLoss="81.54" rerouteNo="0" devices="tripinfo_Borgo_20_6" vType="passenger4" speedFactor="1.18" vaporized=""/>
    <tripinfo id="Nigrisoli_50_6" depart="37.00" departLane="65_0" departPos="0.00" departSpeed="0.00" departDelay="0.00" arrival="152.00" arrivalLane="35[1][1][1][1]_0" arrivalPos="257.67" arrivalSpeed="12.95" duration="115.00" routeLength="1161.06" waitingTime="16.00" waitingCount="1" stopTime="0.00" timeLoss="30.17" rerouteNo="0" devices="tripinfo_Nigrisoli_50_6" vType="ignoring1" speedFactor="1.00" vaporized=""/>
    <tripinfo id="Borgo_20_7" depart="42.00" departLane="6_1" departPos="0.00" departSpeed="0.00" departDelay="0.00" arrival="154.00" arrivalLane="4[1][1][1]_1" arrivalPos="170.54" arrivalSpeed="13.50" duration="112.00" routeLength="551.60" waitingTime="56.00" waitingCount="1" stopTime="0.00" timeLoss="71.55" rerouteNo="0" devices="tripinfo_Borgo_20_7" vType="passenger1" speedFactor="1.01" vaporized=""/>
    <tripinfo id="Borgo_20_9" depart="54.00" departLane="6_1" departPos="0.00" departSpeed="0.00" departDelay="0.00" arrival="156.00" arrivalLane="4[1][1][1]_1" arrivalPos="170.54" arrivalSpeed="13.04" duration="102.00" routeLength="551.60" waitingTime="48.00" waitingCount="1" stopTime="0.00" timeLoss="61.49" rerouteNo="0" devices="tripinfo_Borgo_20_9" vType="passenger4" speedFactor="1.01" vaporized=""/>
    <tripinfo id="Borgo_20_13" depart="79.00" departLane="6_1" departPos="0.00" departSpeed="0.00" departDelay="0.00" arrival="161.00" arrivalLane="4[1][1][1]_1" arrivalPos="170.54" arrivalSpeed="13.12" duration="82.00" routeLength="551.60" waitingTime="26.00" waitingCount="1" stopTime="0.00" timeLoss="39.16" rerouteNo="0" devices="tripinfo_Borgo_20_13" vType="passenger2a" speedFactor="0.96" vaporized=""/>
    <tripinfo id="Borgo_20_16" depart="97.00" departLane="6_1" departPos="0.00" departSpeed="0.00" departDelay="0.00" arrival="162.00" arrivalLane="4[1][1][1]_1" arrivalPos="170.54" arrivalSpeed="14.26" duration="65.00" routeLength="551.60" waitingTime="14.00" waitingCount="1" stopTime="0.00" timeLoss="28.49" rerouteNo="0" devices="tripinfo_Borgo_20_16" vType="passenger2b" speedFactor="1.11" vaporized=""/>
    <tripinfo id="Borgo_100_2" depart="12.00" departLane="6_0" departPos="0.00" departSpeed="0.00" departDelay="0.00" arrival="163.00" arrivalLane="3[1]b_1" arrivalPos="238.77" arrivalSpeed="13.96" duration="151.00" routeLength="797.07" waitingTime="83.00" waitingCount="1" stopTime="0.00" timeLoss="96.00" rerouteNo="0" devices="tripinfo_Borgo_100_2" vType="passenger2a" speedFactor="1.07" vaporized=""/>
    <tripinfo id="Borgo_100_0" depart="0.00" departLane="6_0" departPos="0.00" departSpeed="0.00" departDelay="0.00" arrival="164.00" arrivalLane="3[1]b_0" arrivalPos="238.77" arrivalSpeed="12.91" duration="164.00" routeLength="797.07" waitingTime="90.00" waitingCount="1" stopTime="0.00" timeLoss="103.47" rerouteNo="0" devices="tripinfo_Borgo_100_0" vType="passenger4" speedFactor="0.98" vaporized=""/>
    <tripinfo id="Montefiorino_90_1" depart="4.00" departLane="43_0" departPos="0.00" departSpeed="0.00" departDelay="0.00" arrival="165.00" arrivalLane="2[1][1][1]b_0" arrivalPos="324.74" arrivalSpeed="14.63" duration="161.00" routeLength="1198.14" waitingTime="68.00" waitingCount="1" stopTime="0.00" timeLoss="81.05" rerouteNo="0" devices="tripinfo_Montefiorino_90_1" vType="passenger1" speedFactor="1.10" vaporized=""/>
    <tripinfo id="Borgo_100_11" depart="66.00" departLane="6_0" departPos="0.00" departSpeed="0.00" departDelay="0.00" arrival="165.00" arrivalLane="3[1]b_1" arrivalPos="238.77" arrivalSpeed="15.78" duration="99.00" routeLength="797.07" waitingTime="30.00" waitingCount="1" stopTime="0.00" timeLoss="48.30" rerouteNo="0" devices="tripinfo_Borgo_100_11" vType="passenger1" speedFactor="1.17" vaporized=""/>
    <tripinfo id="Saffi_20_5" depart="14.00" departLane="12_0" departPos="0.00" departSpeed="0.00" departDelay="0.00" arrival="166.00" arrivalLane="4[1][1][1]_0" arrivalPos="170.54" arrivalSpeed="15.87" duration="152.00" routeLength="1784.64" waitingTime="12.00" waitingCount="2" stopTime="0.00" timeLoss="41.56" rerouteNo="0" devices="tripinfo_Saffi_20_5" vType="passenger2a" speedFactor="1.17" vaporized=""/>
    <tripinfo id="Borgo_100_8" depart="48.00" departLane="6_0" departPos="0.00" departSpeed="0.00" departDelay="0.00" arrival="166.00" arrivalLane="3[1]b_0" arrivalPos="238.77" arrivalSpeed="13.74" duration="118.00" routeLength="797.07" waitingTime="45.00" waitingCount="1" stopTime="0.00" timeLoss="60.03" rerouteNo="0" devices="tripinfo_Borgo_100_8" vType="passenger4" speedFactor="1.01" vaporized=""/>
    <tripinfo id="Gandhi_70_32" depart="50.00" departLane="1[0]_0" departPos="0.00" departSpeed="0.00" departDelay="0.00" arrival="166.00" arrivalLane="44_0" arrivalPos="122.23" arrivalSpeed="12.66" duration="116.00" routeLength="1079.17" waitingTime="12.00" waitingCount="1" stopTime="0.00" timeLoss="30.22" rerouteNo="0" devices="tripinfo_Gandhi_70_32" vType="passenger3" speedFactor="0.91" vaporized=""/>
    <tripinfo id="Pertini_102_24" depart="56.00" departLane="13[0]_0" departPos="0.00" departSpeed="0.00" departDelay="5.00" arrival="166.00" arrivalLane="29[0]_0" arrivalPos="129.99" arrivalSpeed="12.50" duration="110.00" routeLength="818.26" waitingTime="24.00" waitingCount="2" stopTime="0.00" timeLoss="47.46" rerouteNo="0" devices="tripinfo_Pertini_102_24" vType="passenger2b" speedFactor="0.98" vaporized=""/>
    <tripinfo id="Borgo_100_12" depart="72.00" departLane="6_0" departPos="0.00" departSpeed="0.00" departDelay="0.00" arrival="169.00" arrivalLane="3[1]b_0" arrivalPos="238.77" arrivalSpeed="13.77" duration="97.00" routeLength="797.07" waitingTime="26.00" waitingCount="1" stopTime="0.00" timeLoss="40.77" rerouteNo="0" devices="tripinfo_Borgo_100_12" vType="passenger5" speedFactor="1.04" vaporized=""/>
    <tripinfo id="Saffi_10_1" depart="4.00" departLane="12_0" departPos="0.00" departSpeed="0.00" departDelay="2.00" arrival="175.00" arrivalLane="10_0" arrivalPos="223.30" arrivalSpeed="12.89" duration="171.00" routeLength="1851.18" waitingTime="10.00" waitingCount="1" stopTime="0.00" timeLoss="31.65" rerouteNo="0" devices="tripinfo_Saffi_10_1" vType="passenger5" speedFactor="0.96" vaporized=""/>